Title: * C:\Users\eiverson\OneDrive - Dynapower Company\Documents\GitHub\Qspice-2\IsoDCDC\CBB011M12GM4T_test6.qsch
Date: Mon Dec 1 16:58:52 2025
Plotname: Transient Analysis Measurement
Flags: real
No. Variables: 2
No. Points: 2
Command: Imperator Dominus Noster Romulus Augustus Pius Felix Augustus, Build Nov 25 2025 06:36:06
.param FRQ=100000
.param NUM_PERIOD=1000
.param VIN=750
.param TEMP=27
Variables:
	0	Phi	parameter
	1	VOUT_SS	parameter
Values:
0	0.1
	7.7427075300e+02
1	0.2
	7.7804074601e+02
